 Gaussian 16, Revision A.03,
 Gaussian 16:  EM64M-G16RevA.03 25-Dec-2016

 ---------
 # opt pm6
 ---------

 ----------------
 Smiles:Oc1ccccc1
 ----------------
 Symbolic Z-matrix:
 Charge =  0 Multiplicity = 1

 SCF Done:  E(RPM6) = -0.315069586354E-01 A.U. after   16 cycles
 SCF Done:  E(RPM6) = -0.328322516734E-01 A.U. after   15 cycles
 SCF Done:  E(RPM6) = -0.332437889064E-01 A.U. after   14 cycles
 SCF Done:  E(RPM6) = -0.332708956283E-01 A.U. after   13 cycles
 SCF Done:  E(RPM6) = -0.332751234367E-01 A.U. after   12 cycles
 Optimization completed.
    -- Stationary point found.

                         Standard orientation:
 ---------------------------------------------------------------------
 Center     Atomic      Atomic             Coordinates (Angstroms)
 Number     Number       Type             X           Y           Z
 ---------------------------------------------------------------------
      1          8           0       -2.293594   -0.113360   -0.000000
      2          6           0       -0.921781   -0.010899    0.000000
      3          6           0       -0.233449   -1.235920    0.000000
      4          6           0        1.159536   -1.204187    0.000000
      5          6           0        1.846458    0.017968    0.000000
      6          6           0        1.136741    1.222327    0.000000
      7          6           0       -0.261118    1.225794    0.000000
      8          1           0       -2.733109    0.770159    0.000000
      9          1           0       -0.790242   -2.169255    0.000000
     10          1           0        1.719046   -2.140030   -0.000000
     11          1           0        2.933360    0.027733    0.000000
     12          1           0        1.675532    2.169972   -0.000000
     13          1           0       -0.814153    2.157795   -0.000000
 ---------------------------------------------------------------------

 The electronic state is 1-A.
 Alpha  occ. eigenvalues --   -1.13767  -1.09600  -0.96342  -0.94239  -0.81185
 Alpha  occ. eigenvalues --   -0.78386  -0.68803  -0.62662  -0.59007  -0.54925
 Alpha  occ. eigenvalues --   -0.53371  -0.53348  -0.50853  -0.46273  -0.45283
 Alpha  occ. eigenvalues --   -0.44222  -0.36646  -0.33435
 Alpha virt. eigenvalues --    0.00466   0.01223   0.08380   0.09188   0.14784
 Alpha virt. eigenvalues --    0.15165   0.17250   0.17855   0.18323   0.19576
 Alpha virt. eigenvalues --    0.20084   0.20669   0.21647   0.22458   0.22840

 Mulliken charges:
               1
     1  O   -0.476059
     2  C    0.346781
     3  C   -0.301785
     4  C   -0.024081
     5  C   -0.264850
     6  C   -0.008254
     7  C   -0.375346
     8  H    0.321888
     9  H    0.180577
    10  H    0.140608
    11  H    0.156790
    12  H    0.137154
    13  H    0.166578
 Sum of Mulliken charges =  -0.00000

 Dipole moment (field-independent basis, Debye):
    X=              0.3656    Y=              1.3106    Z=              0.0000  Tot=              1.3606
 N-N= 1.628479886126D+02 E-N=-2.362508456207D+02  KE=-6.586473493697D+01
 1\1\GINC-MACMINIM12022MAC-MINI-2\FOpt\RPM6\ZDO\C6H6O1\MACMINI_M1_2022\
 27-May-2024\0\\# opt pm6\\Smiles:Oc1ccccc1\\0,1\O,2.3878211208,-0.6614
 855316,0.1988859962\C,1.0689259028,-0.2873721544,0.0852002941\C,0.1392
 275932,-1.2389580976,0.5375534479\C,-1.215199444,-0.9236110092,0.45096
 99668\C,-1.6298663952,0.3087865898,-0.07321808\C,-0.6836100561,1.23752
 38558,-0.5161906576\C,0.6829684013,0.9525912518,-0.4433962427\H,3.0027
 193217,0.036554321,-0.1303848362\H,0.4873682043,-2.1867504253,0.939573
 9829\H,-1.9583276218,-1.6436294924,0.7947544902\H,-2.689830556,0.54145
 68604,-0.1347918225\H,-1.0111565613,2.1943797881,-0.9229668083\H,1.418

 Normal termination of Gaussian 16 at Mon May 27 11:58:50 2024.
