 Gaussian 16, Revision A.03,
 Gaussian 16:  EM64M-G16RevA.03 25-Dec-2016

 --------------------------------------------
 # m062x/6-311G(d,p) geom=allcheck guess=read
 --------------------------------------------

 Structure from the checkpoint file:  "1_#_m062x_6-311G_d_p_geom_allcheck_guess_read.chk"
 ----------------
 Smiles:Oc1ccccc1
 ----------------
 Charge =  0 Multiplicity = 1

                         Standard orientation:
 ---------------------------------------------------------------------
 Center     Atomic      Atomic             Coordinates (Angstroms)
 Number     Number       Type             X           Y           Z
 ---------------------------------------------------------------------
      1          8           0       -2.307251   -0.111785   -0.000000
      2          6           0       -0.940753   -0.024330    0.000000
      3          6           0       -0.220695   -1.224318    0.000000
      4          6           0        1.171371   -1.190742    0.000000
      5          6           0        1.857222    0.027915    0.000000
      6          6           0        1.131957    1.219375    0.000000
      7          6           0       -0.263947    1.199567    0.000000
      8          1           0       -2.678303    0.784081    0.000000
      9          1           0       -0.766729   -2.162624    0.000000
     10          1           0        1.725601   -2.125693    0.000000
     11          1           0        2.943041    0.046742    0.000000
     12          1           0        1.649913    2.174879    0.000000
     13          1           0       -0.826440    2.132094   -0.000000
 ---------------------------------------------------------------------

 SCF Done:  E(RM062X) =  -307.416976143     A.U. after   11 cycles

 The electronic state is 1-A.
 Alpha  occ. eigenvalues --  -19.64815 -10.60764 -10.54818 -10.54609 -10.54523
 Alpha  occ. eigenvalues --  -10.53913 -10.53756  -1.18277  -0.95561  -0.84673
 Alpha  occ. eigenvalues --   -0.83441  -0.70927  -0.68640  -0.62155  -0.57445
 Alpha  occ. eigenvalues --   -0.54101  -0.50733  -0.49180  -0.49093  -0.46365
 Alpha  occ. eigenvalues --   -0.42346  -0.41021  -0.40153  -0.31031  -0.27977
 Alpha virt. eigenvalues --    0.02340   0.04060   0.06488   0.08400   0.11303
 Alpha virt. eigenvalues --    0.12882   0.15384   0.16569   0.20674   0.25740
 Alpha virt. eigenvalues --    0.28654   0.31009   0.32721   0.34399   0.38856

 Mulliken charges:
               1
     1  O   -0.402879
     2  C    0.159828
     3  C   -0.122967
     4  C   -0.122772
     5  C   -0.139301
     6  C   -0.125084
     7  C   -0.160689
     8  H    0.263821
     9  H    0.141165
    10  H    0.129528
    11  H    0.125984
    12  H    0.128495
    13  H    0.124872
 Sum of Mulliken charges =  -0.00000

 Dipole moment (field-independent basis, Debye):
    X=              0.0425    Y=              1.3772    Z=              0.0000  Tot=              1.3778
 Quadrupole moment (field-independent basis, Debye-Ang):
   XX=            -37.1069   YY=            -35.2713   ZZ=            -45.2627
   XY=             -4.4984   XZ=             -0.0000   YZ=              0.0000

 Normal termination of Gaussian 16 at Mon May 27 11:59:50 2024.
