 Gaussian 16, Revision A.03,
 Gaussian 16:  EM64M-G16RevA.03 25-Dec-2016

 --------------------------------------------------
 # opt freq b3lyp/6-31G(d) geom=allcheck guess=read
 --------------------------------------------------

 Structure from the checkpoint file:  "1_#_opt_freq_b3lyp_6-31G_d_geom_allcheck_guess_read.chk"
 ----------------
 Smiles:Oc1ccccc1
 ----------------
 Charge =  0 Multiplicity = 1

 SCF Done:  E(RB3LYP) =  -307.463534894     A.U. after   20 cycles
 SCF Done:  E(RB3LYP) =  -307.464805121     A.U. after   11 cycles
 SCF Done:  E(RB3LYP) =  -307.464856771     A.U. after    9 cycles
 SCF Done:  E(RB3LYP) =  -307.464860261     A.U. after    8 cycles
 Optimization completed.
    -- Stationary point found.
 Normal termination of Gaussian 16 at Mon May 27 11:59:11 2024.

 --------------------------------------------------------------------
 #N Geom=AllCheck Guess=TCheck SCRF=Check GenChk RB3LYP/6-31G(d) Freq
 --------------------------------------------------------------------

 Structure from the checkpoint file:  "1_#_opt_freq_b3lyp_6-31G_d_geom_allcheck_guess_read.chk"
 ----------------
 Smiles:Oc1ccccc1
 ----------------
 Charge =  0 Multiplicity = 1

                         Standard orientation:
 ---------------------------------------------------------------------
 Center     Atomic      Atomic             Coordinates (Angstroms)
 Number     Number       Type             X           Y           Z
 ---------------------------------------------------------------------
      1          8           0       -2.307251   -0.111785   -0.000000
      2          6           0       -0.940753   -0.024330    0.000000
      3          6           0       -0.220695   -1.224318    0.000000
      4          6           0        1.171371   -1.190742    0.000000
      5          6           0        1.857222    0.027915    0.000000
      6          6           0        1.131957    1.219375    0.000000
      7          6           0       -0.263947    1.199567    0.000000
      8          1           0       -2.678303    0.784081    0.000000
      9          1           0       -0.766729   -2.162624    0.000000
     10          1           0        1.725601   -2.125693    0.000000
     11          1           0        2.943041    0.046742    0.000000
     12          1           0        1.649913    2.174879    0.000000
     13          1           0       -0.826440    2.132094   -0.000000
 ---------------------------------------------------------------------

 SCF Done:  E(RB3LYP) =  -307.464860261     A.U. after    1 cycles

 The electronic state is 1-A.
 Alpha  occ. eigenvalues --  -19.17732 -10.24763 -10.19086 -10.18889 -10.18832
 Alpha  occ. eigenvalues --  -10.18224 -10.18108  -1.05709  -0.84471  -0.74480
 Alpha  occ. eigenvalues --   -0.73337  -0.62073  -0.59817  -0.54049  -0.49529
 Alpha  occ. eigenvalues --   -0.46147  -0.43479  -0.42058  -0.40281  -0.38569
 Alpha  occ. eigenvalues --   -0.35817  -0.33708  -0.33064  -0.24896  -0.21895
 Alpha virt. eigenvalues --    0.00130   0.01704   0.06868   0.09361   0.14472
 Alpha virt. eigenvalues --    0.15675   0.16992   0.18886   0.18957   0.24367
 Alpha virt. eigenvalues --    0.29997   0.30564   0.34331   0.35418   0.48316

 Mulliken charges:
               1
     1  O   -0.642652
     2  C    0.350046
     3  C   -0.158292
     4  C   -0.134243
     5  C   -0.135336
     6  C   -0.133191
     7  C   -0.194678
     8  H    0.406336
     9  H    0.138809
    10  H    0.130788
    11  H    0.125764
    12  H    0.130068
    13  H    0.116582
 Sum of Mulliken charges =  -0.00000

 Dipole moment (field-independent basis, Debye):
    X=             -0.0652    Y=              1.3529    Z=              0.0000  Tot=              1.3545
 Quadrupole moment (field-independent basis, Debye-Ang):
   XX=            -36.6457   YY=            -35.3054   ZZ=            -43.7461
   XY=             -4.4126   XZ=             -0.0000   YZ=              0.0000

  Exact polarizability:  81.482  -1.572  73.578  -0.000   0.000  22.847
 Approx polarizability: 135.699  -0.697 122.771  -0.000   0.000  33.978

                      1                      2                      3
                      A                      A                      A
 Frequencies --    233.6111               357.9092               406.7715
 Red. masses --      4.3840                 1.1049                 3.9917
 Frc consts  --      0.1410                 0.0834                 0.3891
 IR Inten    --      0.6840               123.1984                 9.9715

                      4                      5                      6
                      A                      A                      A
 Frequencies --    422.5138               518.2302               535.5037
 Red. masses --      3.1230                 2.8546                 7.2742
 Frc consts  --      0.3285                 0.4517                 1.2290
 IR Inten    --      0.1618                 5.8533                 1.3339

                      7                      8                      9
                      A                      A                      A
 Frequencies --    632.8993               699.9825               762.5727
 Red. masses --      6.4376                 2.4168                 1.5883
 Frc consts  --      1.5193                 0.6977                 0.5442
 IR Inten    --      0.2932                10.4018                55.1505

                     10                     11                     12
                      A                      A                      A
 Frequencies --    824.8257               833.0079               885.4731
 Red. masses --      1.2541                 5.7724                 1.4303
 Frc consts  --      0.5027                 2.3599                 0.6607
 IR Inten    --      0.0106                18.0558                 5.8341

                     13                     14                     15
                      A                      A                      A
 Frequencies --    952.0549               980.1118              1014.8871
 Red. masses --      1.3198                 1.2280                 5.9709
 Frc consts  --      0.7048                 0.6950                 3.6234
 IR Inten    --      0.0943                 0.1991                 1.5197

                     16                     17                     18
                      A                      A                      A
 Frequencies --   1052.3302              1103.9220              1188.2828
 Red. masses --      2.0875                 1.5496                 1.1142
 Frc consts  --      1.3620                 1.1126                 0.9269
 IR Inten    --      3.5338                11.2433                 7.7005

                     19                     20                     21
                      A                      A                      A
 Frequencies --   1201.9174              1212.6886              1304.9039
 Red. masses --      1.1274                 1.3389                 3.4750
 Frc consts  --      0.9596                 1.1601                 3.4863
 IR Inten    --      4.8878               144.2398                77.8219

                     22                     23                     24
                      A                      A                      A
 Frequencies --   1367.5143              1385.7409              1520.9317
 Red. masses --      2.7180                 1.6208                 2.2750
 Frc consts  --      2.9948                 1.8338                 3.1006
 IR Inten    --      2.4980                39.8446                30.0892

                     25                     26                     27
                      A                      A                      A
 Frequencies --   1550.5872              1657.0938              1670.0052
 Red. masses --      2.3816                 5.7533                 5.6825
 Frc consts  --      3.3737                 9.3082                 9.3373
 IR Inten    --     46.4270                38.9937                39.7955

                     28                     29                     30
                      A                      A                      A
 Frequencies --   3163.3508              3185.8531              3194.1674
 Red. masses --      1.0884                 1.0861                 1.0912
 Frc consts  --      6.4168                 6.4950                 6.5594
 IR Inten    --     17.8351                 0.0423                24.0795

                     31                     32                     33
                      A                      A                      A
 Frequencies --   3209.1808              3216.7580              3751.1968
 Red. masses --      1.0941                 1.0959                 1.0659
 Frc consts  --      6.6391                 6.6814                 8.8372
 IR Inten    --     25.2363                 6.4570                37.7624

 - Thermochemistry -
 -------------------
 Temperature   298.150 Kelvin.  Pressure   1.00000 Atm.
 Atom     1 has atomic number  8 and mass  15.99491

 Molecular mass:    94.04186 amu.
 Principal axes and moments of inertia in atomic units:
                           1         2         3
     Eigenvalues --   319.66590 690.659061010.32496
           X            0.99979  -0.02031  -0.00000
           Y            0.02031   0.99979  -0.00000
           Z            0.00000   0.00000   1.00000
 This molecule is an asymmetric top.
 Rotational symmetry number  1.
 Rotational temperatures (Kelvin)      0.27095     0.12541     0.08573
 Rotational constants (GHZ):           5.64571     2.61307     1.78630
 Zero-point vibrational energy     275121.8 (Joules/Mol)
                                   65.75570 (Kcal/Mol)
 Warning -- explicit consideration of   6 degrees of freedom as
           vibrations may cause significant error
 Vibrational temperatures:    336.11   514.95   585.25   607.90   745.62
          (Kelvin)            770.47   910.60  1007.12  1097.17  1186.74
                             1198.51  1274.00  1369.79  1410.16  1460.20
                             1514.07  1588.30  1709.67  1729.29  1744.79
                             1877.47  1967.55  1993.77  2188.28  2230.95
                             2384.19  2402.77  4551.36  4583.73  4595.69
                             4617.30  4628.20  5397.14

 Zero-point correction=                           0.104788 (Hartree/Particle)
 Thermal correction to Energy=                    0.110292
 Thermal correction to Enthalpy=                  0.111236
 Thermal correction to Gibbs Free Energy=         0.075814
 Sum of electronic and zero-point Energies=           -307.360072
 Sum of electronic and thermal Energies=              -307.354568
 Sum of electronic and thermal Enthalpies=            -307.353624
 Sum of electronic and thermal Free Energies=         -307.389047

                     E (Thermal)             CV                S
                      KCal/Mol        Cal/Mol-Kelvin    Cal/Mol-Kelvin
 Total                   69.209             21.801             74.553
 Electronic               0.000              0.000              0.000
 Translational            0.889              2.981             39.535
 Rotational               0.889              2.981             26.903
 Vibrational             67.432             15.839              8.115
 Vibration     1          0.654              1.789              1.851
 Vibration     2          0.733              1.559              1.131
 Vibration     3          0.772              1.456              0.938
 Vibration     4          0.785              1.421              0.883
 Vibration     5          0.873              1.210              0.614
 Vibration     6          0.891              1.171              0.575

 Optimization completed.
    -- Stationary point found.
 Normal termination of Gaussian 16 at Mon May 27 11:59:40 2024.
