 Gaussian 16, Revision A.03,
 Gaussian 16:  EM64M-G16RevA.03 25-Dec-2016

 ---------------------------------------
 # mp2/6-31G(d) geom=allcheck guess=read
 ---------------------------------------

 Structure from the checkpoint file:  "1_#_mp2_6-31G_d_geom_allcheck_guess_read.chk"
 ----------------
 Smiles:Oc1ccccc1
 ----------------
 Charge =  0 Multiplicity = 1

                         Standard orientation:
 ---------------------------------------------------------------------
 Center     Atomic      Atomic             Coordinates (Angstroms)
 Number     Number       Type             X           Y           Z
 ---------------------------------------------------------------------
      1          8           0       -2.307251   -0.111785   -0.000000
      2          6           0       -0.940753   -0.024330    0.000000
      3          6           0       -0.220695   -1.224318    0.000000
      4          6           0        1.171371   -1.190742    0.000000
      5          6           0        1.857222    0.027915    0.000000
      6          6           0        1.131957    1.219375    0.000000
      7          6           0       -0.263947    1.199567    0.000000
      8          1           0       -2.678303    0.784081    0.000000
      9          1           0       -0.766729   -2.162624    0.000000
     10          1           0        1.725601   -2.125693    0.000000
     11          1           0        2.943041    0.046742    0.000000
     12          1           0        1.649913    2.174879    0.000000
     13          1           0       -0.826440    2.132094   -0.000000
 ---------------------------------------------------------------------

 SCF Done:  E(RHF) =  -305.556001612     A.U. after   13 cycles
 E2 =    -0.9349367300D+00 EUMP2 =    -0.30649093834207D+03

 The electronic state is 1-A.
 Alpha  occ. eigenvalues --  -20.59403 -11.30296 -11.24261 -11.24031 -11.23449
 Alpha  occ. eigenvalues --  -11.22779 -11.22761  -1.39875  -1.14121  -1.01515
 Alpha  occ. eigenvalues --   -0.99952  -0.84120  -0.81750  -0.72684  -0.67997
 Alpha  occ. eigenvalues --   -0.64686  -0.60496  -0.58682  -0.58297  -0.56230
 Alpha  occ. eigenvalues --   -0.51258  -0.48932  -0.47674  -0.33745  -0.30912
 Alpha virt. eigenvalues --    0.14057   0.16042   0.21807   0.23770   0.29217
 Alpha virt. eigenvalues --    0.30603   0.33299   0.33824   0.37219   0.43164
 Alpha virt. eigenvalues --    0.47280   0.47561   0.52711   0.54130   0.67449

 Mulliken charges:
               1
     1  O   -0.762047
     2  C    0.412939
     3  C   -0.247339
     4  C   -0.182326
     5  C   -0.226992
     6  C   -0.180910
     7  C   -0.288292
     8  H    0.455365
     9  H    0.218267
    10  H    0.205346
    11  H    0.199700
    12  H    0.204928
    13  H    0.191362
 Sum of Mulliken charges =  -0.00000

 Dipole moment (field-independent basis, Debye):
    X=              0.3134    Y=              1.4629    Z=              0.0000  Tot=              1.4961
 Quadrupole moment (field-independent basis, Debye-Ang):
   XX=            -37.5323   YY=            -34.9761   ZZ=            -45.0924
   XY=             -4.7653   XZ=             -0.0000   YZ=              0.0000

 Normal termination of Gaussian 16 at Mon May 27 11:59:53 2024.
