 Gaussian 16, Revision A.03,
 Gaussian 16:  EM64M-G16RevA.03 25-Dec-2016

 ---------------------------------------
 # mp2/6-31G(d) geom=allcheck guess=read
 ---------------------------------------

 Structure from the checkpoint file:  "2_#_mp2_6-31G_d_geom_allcheck_guess_read.chk"
 -----------------
 Smiles:Nc1ccccc1O
 -----------------
 Charge =  0 Multiplicity = 1

                         Standard orientation:
 ---------------------------------------------------------------------
 Center     Atomic      Atomic             Coordinates (Angstroms)
 Number     Number       Type             X           Y           Z
 ---------------------------------------------------------------------
      1          7           0       -1.928792    1.115802   -0.000041
      2          6           0       -0.565999    0.631692    0.000007
      3          6           0        0.576750    1.432077    0.000005
      4          6           0        1.846530    0.851668   -0.000004
      5          6           0        1.966006   -0.541796    0.000010
      6          6           0        0.835555   -1.356374    0.000005
      7          6           0       -0.434447   -0.770513   -0.000002
      8          8           0       -1.548171   -1.542085   -0.000015
      9          1           0       -2.119633    1.691062   -0.818528
     10          1           0       -2.119980    1.690251    0.818939
     11          1           0        0.466496    2.514799    0.000001
     12          1           0        2.732893    1.479194   -0.000007
     13          1           0        2.951778   -0.999721    0.000012
     14          1           0        0.915058   -2.439033   -0.000003
     15          1           0       -2.286064   -0.891017   -0.000134
 ---------------------------------------------------------------------

 SCF Done:  E(RHF) =  -360.584167880     A.U. after   13 cycles
 E2 =    -0.1102346717D+01 EUMP2 =    -0.36168651459711D+03

 The electronic state is 1-A.
 Alpha  occ. eigenvalues --  -20.57457 -15.57549 -11.29431 -11.26213 -11.24155
 Alpha  occ. eigenvalues --  -11.23820 -11.22746 -11.22525  -1.38877  -1.20690
 Alpha  occ. eigenvalues --   -1.12389  -1.00412  -0.98048  -0.83365  -0.81109
 Alpha  occ. eigenvalues --   -0.71471  -0.68878  -0.67235  -0.64520  -0.61040
 Alpha  occ. eigenvalues --   -0.59041  -0.56744  -0.55827  -0.52822  -0.48836
 Alpha  occ. eigenvalues --   -0.47077  -0.43316  -0.33424  -0.30144
 Alpha virt. eigenvalues --    0.13844   0.16408   0.21451   0.24386   0.29529
 Alpha virt. eigenvalues --    0.29673   0.30581   0.32517   0.33449   0.38813
 Alpha virt. eigenvalues --    0.42706   0.44569   0.49624   0.51212   0.52982

 Mulliken charges:
               1
     1  N   -0.930312
     2  C    0.121465
     3  C   -0.196921
     4  C   -0.231893
     5  C   -0.184364
     6  C   -0.250016
     7  C    0.414782
     8  O   -0.781005
     9  H    0.362078
    10  H    0.362077
    11  H    0.200599
    12  H    0.199199
    13  H    0.203995
    14  H    0.217581
    15  H    0.492735
 Sum of Mulliken charges =  -0.00000

 Dipole moment (field-independent basis, Debye):
    X=             -0.0504    Y=              2.9512    Z=              0.0006  Tot=              2.9516
 Quadrupole moment (field-independent basis, Debye-Ang):
   XX=            -41.9910   YY=            -43.4484   ZZ=            -48.9634
   XY=             -6.1609   XZ=             -0.0020   YZ=              0.0001

 Normal termination of Gaussian 16 at Mon May 27 12:01:31 2024.
