 Gaussian 16, Revision A.03,
 Gaussian 16:  EM64M-G16RevA.03 25-Dec-2016

 ---------
 # opt pm6
 ---------

 -----------------
 Smiles:Nc1ccccc1O
 -----------------
 Symbolic Z-matrix:
 Charge =  0 Multiplicity = 1

 SCF Done:  E(RPM6) = -0.249866163613E-01 A.U. after   17 cycles
 SCF Done:  E(RPM6) = -0.285850604087E-01 A.U. after   15 cycles
 SCF Done:  E(RPM6) = -0.306374554631E-01 A.U. after   15 cycles
 SCF Done:  E(RPM6) = -0.308691450859E-01 A.U. after   14 cycles
 SCF Done:  E(RPM6) = -0.310905145219E-01 A.U. after   15 cycles
 SCF Done:  E(RPM6) = -0.311840595860E-01 A.U. after   15 cycles
 SCF Done:  E(RPM6) = -0.312630163783E-01 A.U. after   15 cycles
 SCF Done:  E(RPM6) = -0.313757590342E-01 A.U. after   15 cycles
 SCF Done:  E(RPM6) = -0.316545080031E-01 A.U. after   15 cycles
 SCF Done:  E(RPM6) = -0.317889256547E-01 A.U. after   15 cycles
 SCF Done:  E(RPM6) = -0.319795757366E-01 A.U. after   13 cycles
 SCF Done:  E(RPM6) = -0.321918380030E-01 A.U. after   15 cycles
 SCF Done:  E(RPM6) = -0.323548056237E-01 A.U. after   15 cycles
 SCF Done:  E(RPM6) = -0.323757578924E-01 A.U. after   14 cycles
 SCF Done:  E(RPM6) = -0.323814281467E-01 A.U. after   14 cycles
 SCF Done:  E(RPM6) = -0.323829122597E-01 A.U. after   13 cycles
 SCF Done:  E(RPM6) = -0.323831075933E-01 A.U. after   11 cycles
 Optimization completed.
    -- Stationary point found.

                         Standard orientation:
 ---------------------------------------------------------------------
 Center     Atomic      Atomic             Coordinates (Angstroms)
 Number     Number       Type             X           Y           Z
 ---------------------------------------------------------------------
      1          7           0       -1.943813    1.151952    0.000153
      2          6           0       -0.582295    0.648949   -0.000084
      3          6           0        0.566920    1.450539   -0.000061
      4          6           0        1.832513    0.860870   -0.000145
      5          6           0        1.964042   -0.535205    0.000136
      6          6           0        0.839236   -1.356451    0.000126
      7          6           0       -0.432585   -0.758567   -0.000092
      8          8           0       -1.500171   -1.610828   -0.000121
      9          1           0       -2.112085    1.732147   -0.820721
     10          1           0       -2.111991    1.731339    0.821721
     11          1           0        0.473480    2.535194   -0.000008
     12          1           0        2.721577    1.487122   -0.000510
     13          1           0        2.957676   -0.983905    0.000486
     14          1           0        0.918935   -2.441379    0.000247
     15          1           0       -2.366516   -1.098370   -0.000599
 ---------------------------------------------------------------------

 The electronic state is 1-A.
 Alpha  occ. eigenvalues --   -1.16637  -1.11645  -1.08967  -0.95239  -0.92771
 Alpha  occ. eigenvalues --   -0.80135  -0.78415  -0.67752  -0.63698  -0.63082
 Alpha  occ. eigenvalues --   -0.59334  -0.56247  -0.54166  -0.52206  -0.50533
 Alpha  occ. eigenvalues --   -0.47771  -0.44988  -0.44551  -0.37923  -0.36368
 Alpha  occ. eigenvalues --   -0.32830
 Alpha virt. eigenvalues --    0.00092   0.01138   0.08929   0.08982   0.11160
 Alpha virt. eigenvalues --    0.14451   0.15693   0.17012   0.17299   0.18144
 Alpha virt. eigenvalues --    0.19807   0.20051   0.21001   0.21148   0.22006

 Mulliken charges:
               1
     1  N   -0.505500
     2  C   -0.095044
     3  C   -0.118315
     4  C   -0.224914
     5  C   -0.049455
     6  C   -0.287572
     7  C    0.326207
     8  O   -0.462887
     9  H    0.222204
    10  H    0.222221
    11  H    0.144786
    12  H    0.154262
    13  H    0.143490
    14  H    0.180760
    15  H    0.349754
 Sum of Mulliken charges =   0.00000

 Dipole moment (field-independent basis, Debye):
    X=              0.1802    Y=              2.5483    Z=              0.0003  Tot=              2.5547
 N-N= 2.079095588720D+02 E-N=-3.105399721984D+02  KE=-7.743872385307D+01
 1\1\GINC-MACMINIM12022MAC-MINI-2\FOpt\RPM6\ZDO\C6H7N1O1\MACMINI_M1_202
 2\27-May-2024\0\\# opt pm6\\Smiles:Nc1ccccc1O\\0,1\N,-2.2429387377,0.0
 110992036,-0.0412435374\C,-0.7982819396,-0.1271814488,-0.0169890392\C,
 -0.1109986831,-1.348155253,-0.0273498208\C,1.2848679758,-1.3667253619,
 -0.0018919658\C,2.0091943305,-0.1665573254,0.0337878697\C,1.3524274276
 ,1.0615182153,0.0448335257\C,-0.0526184147,1.0753885278,0.0194188674\O
 ,-0.6443863511,2.3065462678,0.0317383539\H,-2.6614150752,-0.4537994358
 ,0.7634442979\H,-2.6307222482,-0.4221771274,-0.8784069259\H,-0.6658656
 631,-2.2843973284,-0.0552682675\H,1.8139061608,-2.3168227462,-0.009677

 Normal termination of Gaussian 16 at Mon May 27 12:00:04 2024.
