 Gaussian 16, Revision A.03,
 Gaussian 16:  EM64M-G16RevA.03 25-Dec-2016

 --------------------------------------------------
 # opt freq b3lyp/6-31G(d) geom=allcheck guess=read
 --------------------------------------------------

 Structure from the checkpoint file:  "2_#_opt_freq_b3lyp_6-31G_d_geom_allcheck_guess_read.chk"
 -----------------
 Smiles:Nc1ccccc1O
 -----------------
 Charge =  0 Multiplicity = 1

 SCF Done:  E(RB3LYP) =  -362.815276602     A.U. after   20 cycles
 SCF Done:  E(RB3LYP) =  -362.818484022     A.U. after   12 cycles
 SCF Done:  E(RB3LYP) =  -362.818705115     A.U. after   11 cycles
 SCF Done:  E(RB3LYP) =  -362.818729641     A.U. after    9 cycles
 SCF Done:  E(RB3LYP) =  -362.818732345     A.U. after    8 cycles
 Optimization completed.
    -- Stationary point found.
 Normal termination of Gaussian 16 at Mon May 27 12:00:39 2024.

 --------------------------------------------------------------------
 #N Geom=AllCheck Guess=TCheck SCRF=Check GenChk RB3LYP/6-31G(d) Freq
 --------------------------------------------------------------------

 Structure from the checkpoint file:  "2_#_opt_freq_b3lyp_6-31G_d_geom_allcheck_guess_read.chk"
 -----------------
 Smiles:Nc1ccccc1O
 -----------------
 Charge =  0 Multiplicity = 1

                         Standard orientation:
 ---------------------------------------------------------------------
 Center     Atomic      Atomic             Coordinates (Angstroms)
 Number     Number       Type             X           Y           Z
 ---------------------------------------------------------------------
      1          7           0       -1.928792    1.115802   -0.000041
      2          6           0       -0.565999    0.631692    0.000007
      3          6           0        0.576750    1.432077    0.000005
      4          6           0        1.846530    0.851668   -0.000004
      5          6           0        1.966006   -0.541796    0.000010
      6          6           0        0.835555   -1.356374    0.000005
      7          6           0       -0.434447   -0.770513   -0.000002
      8          8           0       -1.548171   -1.542085   -0.000015
      9          1           0       -2.119633    1.691062   -0.818528
     10          1           0       -2.119980    1.690251    0.818939
     11          1           0        0.466496    2.514799    0.000001
     12          1           0        2.732893    1.479194   -0.000007
     13          1           0        2.951778   -0.999721    0.000012
     14          1           0        0.915058   -2.439033   -0.000003
     15          1           0       -2.286064   -0.891017   -0.000134
 ---------------------------------------------------------------------

 SCF Done:  E(RB3LYP) =  -362.818732345     A.U. after    1 cycles

 The electronic state is 1-A.
 Alpha  occ. eigenvalues --  -19.15801 -14.34373 -10.23848 -10.21332 -10.18880
 Alpha  occ. eigenvalues --  -10.18613 -10.17974 -10.17865  -1.04580  -0.90488
 Alpha  occ. eigenvalues --   -0.83142  -0.73497  -0.71756  -0.61198  -0.59263
 Alpha  occ. eigenvalues --   -0.52783  -0.50325  -0.50234  -0.46072  -0.44065
 Alpha  occ. eigenvalues --   -0.42356  -0.39123  -0.38163  -0.36832  -0.33281
 Alpha  occ. eigenvalues --   -0.32454  -0.27453  -0.24474  -0.21058
 Alpha virt. eigenvalues --    0.00052   0.02145   0.06962   0.10117   0.13595
 Alpha virt. eigenvalues --    0.14547   0.15068   0.17702   0.18952   0.18973
 Alpha virt. eigenvalues --    0.23549   0.26765   0.31812   0.33435   0.34541

 Mulliken charges:
               1
     1  N   -0.827654
     2  C    0.171883
     3  C   -0.165328
     4  C   -0.148210
     5  C   -0.130594
     6  C   -0.171875
     7  C    0.346063
     8  O   -0.654276
     9  H    0.325341
    10  H    0.325346
    11  H    0.119195
    12  H    0.123627
    13  H    0.127895
    14  H    0.136902
    15  H    0.421686
 Sum of Mulliken charges =  -0.00000

 Dipole moment (field-independent basis, Debye):
    X=             -0.4450    Y=              2.6750    Z=              0.0006  Tot=              2.7117
 Quadrupole moment (field-independent basis, Debye-Ang):
   XX=            -41.5859   YY=            -43.0226   ZZ=            -47.6814
   XY=             -5.6751   XZ=             -0.0019   YZ=              0.0001

  Exact polarizability:  90.092  -1.504  81.658  -0.001  -0.001  29.716
 Approx polarizability: 144.934   2.890 137.195  -0.002  -0.002  44.426

                      1                      2                      3
                      A                      A                      A
 Frequencies --     63.0879               204.5712               277.3351
 Red. masses --      1.0807                 4.0687                 3.9621
 Frc consts  --      0.0025                 0.1003                 0.1796
 IR Inten    --     19.1301                 0.0605                 3.5328

                      4                      5                      6
                      A                      A                      A
 Frequencies --    331.5655               441.7040               447.5320
 Red. masses --      3.9169                 4.3373                 3.0233
 Frc consts  --      0.2537                 0.4986                 0.3568
 IR Inten    --      6.4102                11.0980                 4.1196

                      7                      8                      9
                      A                      A                      A
 Frequencies --    557.0193               567.2451               587.4912
 Red. masses --      3.6409                 5.6267                 6.9845
 Frc consts  --      0.6656                 1.0667                 1.4203
 IR Inten    --      0.8251                 3.0109                 1.9895

                     10                     11                     12
                      A                      A                      A
 Frequencies --    720.8373               751.8010               762.1791
 Red. masses --      3.6587                 1.0873                 1.2782
 Frc consts  --      1.1201                 0.3621                 0.4375
 IR Inten    --      2.7608                87.7274                82.7135

                     13                     14                     15
                      A                      A                      A
 Frequencies --    783.7696               862.4584               863.8568
 Red. masses --      4.9111                 3.0158                 1.3777
 Frc consts  --      1.7775                 1.3217                 0.6057
 IR Inten    --      6.6230                27.3757                 1.1006

                     16                     17                     18
                      A                      A                      A
 Frequencies --    883.2410               927.6290               970.1079
 Red. masses --      1.7742                 1.3301                 1.2354
 Frc consts  --      0.8155                 0.6743                 0.6850
 IR Inten    --    100.7130                 2.5259                 0.0865

                     19                     20                     21
                      A                      A                      A
 Frequencies --   1056.8769              1127.1578              1186.2819
 Red. masses --      2.0831                 1.8580                 1.0997
 Frc consts  --      1.3709                 1.3908                 0.9118
 IR Inten    --      9.5474                 2.3209                 2.7010

                     22                     23                     24
                      A                      A                      A
 Frequencies --   1209.9616              1211.4745              1286.0598
 Red. masses --      1.2527                 1.7770                 2.0384
 Frc consts  --      1.0806                 1.5366                 1.9864
 IR Inten    --      0.0110                23.5006                33.5893

                     25                     26                     27
                      A                      A                      A
 Frequencies --   1311.0406              1339.6771              1426.2268
 Red. masses --      3.0738                 3.6014                 1.6191
 Frc consts  --      3.1129                 3.8083                 1.9405
 IR Inten    --    143.4549                33.3002                67.3414

                     28                     29                     30
                      A                      A                      A
 Frequencies --   1517.6862              1545.8361              1639.0901
 Red. masses --      2.5045                 2.8604                 2.6626
 Frc consts  --      3.3989                 4.0272                 4.2147
 IR Inten    --      3.9091               123.6041                23.9942

                     31                     32                     33
                      A                      A                      A
 Frequencies --   1671.2528              1692.3406              3173.2205
 Red. masses --      5.8093                 1.3874                 1.0879
 Frc consts  --      9.5600                 2.3412                 6.4543
 IR Inten    --      3.9024                51.1135                 9.9445

                     34                     35                     36
                      A                      A                      A
 Frequencies --   3187.2970              3205.9704              3216.0194
 Red. masses --      1.0880                 1.0936                 1.0951
 Frc consts  --      6.5122                 6.6227                 6.6731
 IR Inten    --     12.6278                25.0881                 9.5989

                     37                     38                     39
                      A                      A                      A
 Frequencies --   3475.5247              3513.5274              3550.3874
 Red. masses --      1.0487                 1.0633                 1.0939
 Frc consts  --      7.4637                 7.7341                 8.1239
 IR Inten    --      3.1522               137.0420                 5.4566

 - Thermochemistry -
 -------------------
 Temperature   298.150 Kelvin.  Pressure   1.00000 Atm.
 Atom     1 has atomic number  7 and mass  14.00307

 Molecular mass:   109.05276 amu.
 Principal axes and moments of inertia in atomic units:
                           1         2         3
     Eigenvalues --   533.48747 819.807731343.64518
           X            0.99803  -0.06279  -0.00000
           Y            0.06279   0.99803   0.00000
           Z            0.00000  -0.00000   1.00000
 This molecule is an asymmetric top.
 Rotational symmetry number  1.
 Warning -- assumption of classical behavior for rotation
           may cause significant error
 Rotational temperatures (Kelvin)      0.16235     0.10565     0.06446
 Rotational constants (GHZ):           3.38291     2.20142     1.34317
 Zero-point vibrational energy     320278.2 (Joules/Mol)
                                   76.54834 (Kcal/Mol)
 Warning -- explicit consideration of   9 degrees of freedom as
           vibrations may cause significant error
 Vibrational temperatures:     90.77   294.33   399.02   477.05   635.51
          (Kelvin)            643.90   801.43   816.14   845.27  1037.12
                             1081.67  1096.61  1127.67  1240.89  1242.90
                             1270.79  1334.65  1395.77  1520.61  1621.73
                             1706.80  1740.86  1743.04  1850.35  1886.29
                             1927.50  2052.02  2183.61  2224.11  2358.29
                             2404.56  2434.90  4565.56  4585.81  4612.68
                             4627.13  5000.50  5055.18  5108.22

 Zero-point correction=                           0.121988 (Hartree/Particle)
 Thermal correction to Energy=                    0.128880
 Thermal correction to Enthalpy=                  0.129824
 Thermal correction to Gibbs Free Energy=         0.090715
 Sum of electronic and zero-point Energies=           -362.696745
 Sum of electronic and thermal Energies=              -362.689852
 Sum of electronic and thermal Enthalpies=            -362.688908
 Sum of electronic and thermal Free Energies=         -362.728017

                     E (Thermal)             CV                S
                      KCal/Mol        Cal/Mol-Kelvin    Cal/Mol-Kelvin
 Total                   80.873             26.513             82.312
 Electronic               0.000              0.000              0.000
 Translational            0.889              2.981             39.976
 Rotational               0.889              2.981             27.865
 Vibrational             79.096             20.551             14.470
 Vibration     1          0.597              1.972              4.358
 Vibration     2          0.640              1.833              2.092
 Vibration     3          0.678              1.715              1.550
 Vibration     4          0.714              1.612              1.252
 Vibration     5          0.801              1.379              0.821
 Vibration     6          0.807              1.366              0.803
 Vibration     7          0.913              1.124              0.530
 Vibration     8          0.923              1.102              0.510
 Vibration     9          0.945              1.058              0.472

 Optimization completed.
    -- Stationary point found.
 Normal termination of Gaussian 16 at Mon May 27 12:01:14 2024.
