 Gaussian 16, Revision A.03,
 Gaussian 16:  EM64M-G16RevA.03 25-Dec-2016

 --------------------------------------------
 # m062x/6-311G(d,p) geom=allcheck guess=read
 --------------------------------------------

 Structure from the checkpoint file:  "2_#_m062x_6-311G_d_p_geom_allcheck_guess_read.chk"
 -----------------
 Smiles:Nc1ccccc1O
 -----------------
 Charge =  0 Multiplicity = 1

                         Standard orientation:
 ---------------------------------------------------------------------
 Center     Atomic      Atomic             Coordinates (Angstroms)
 Number     Number       Type             X           Y           Z
 ---------------------------------------------------------------------
      1          7           0       -1.928792    1.115802   -0.000041
      2          6           0       -0.565999    0.631692    0.000007
      3          6           0        0.576750    1.432077    0.000005
      4          6           0        1.846530    0.851668   -0.000004
      5          6           0        1.966006   -0.541796    0.000010
      6          6           0        0.835555   -1.356374    0.000005
      7          6           0       -0.434447   -0.770513   -0.000002
      8          8           0       -1.548171   -1.542085   -0.000015
      9          1           0       -2.119633    1.691062   -0.818528
     10          1           0       -2.119980    1.690251    0.818939
     11          1           0        0.466496    2.514799    0.000001
     12          1           0        2.732893    1.479194   -0.000007
     13          1           0        2.951778   -0.999721    0.000012
     14          1           0        0.915058   -2.439033   -0.000003
     15          1           0       -2.286064   -0.891017   -0.000134
 ---------------------------------------------------------------------

 SCF Done:  E(RM062X) =  -362.770812041     A.U. after   12 cycles

 The electronic state is 1-A.
 Alpha  occ. eigenvalues --  -19.63113 -14.75442 -10.59914 -10.57330 -10.54667
 Alpha  occ. eigenvalues --  -10.54344 -10.53673 -10.53612  -1.17328  -1.01596
 Alpha  occ. eigenvalues --   -0.94103  -0.83676  -0.81776  -0.70127  -0.68148
 Alpha  occ. eigenvalues --   -0.60972  -0.58355  -0.57743  -0.54069  -0.51397
 Alpha  occ. eigenvalues --   -0.49543  -0.47805  -0.46001  -0.43664  -0.40413
 Alpha  occ. eigenvalues --   -0.40022  -0.34964  -0.30561  -0.27144
 Alpha virt. eigenvalues --    0.02246   0.04473   0.06335   0.08712   0.11784
 Alpha virt. eigenvalues --    0.12986   0.13711   0.14471   0.16405   0.21634
 Alpha virt. eigenvalues --    0.25141   0.28451   0.31160   0.32056   0.33858

 Mulliken charges:
               1
     1  N   -0.614973
     2  C   -0.046777
     3  C   -0.065965
     4  C   -0.149951
     5  C   -0.114898
     6  C   -0.124543
     7  C    0.246603
     8  O   -0.405021
     9  H    0.246113
    10  H    0.246123
    11  H    0.122774
    12  H    0.123701
    13  H    0.127548
    14  H    0.137393
    15  H    0.271873
 Sum of Mulliken charges =  -0.00000

 Dipole moment (field-independent basis, Debye):
    X=             -0.3586    Y=              2.6860    Z=              0.0006  Tot=              2.7098
 Quadrupole moment (field-independent basis, Debye-Ang):
   XX=            -41.8453   YY=            -43.4423   ZZ=            -49.2333
   XY=             -5.7800   XZ=             -0.0019   YZ=              0.0001

 Normal termination of Gaussian 16 at Mon May 27 12:01:28 2024.
