 Gaussian 16, Revision A.03,
 Gaussian 16:  EM64M-G16RevA.03 25-Dec-2016

 --------------------------------------------------
 # opt freq b3lyp/6-31G(d) geom=allcheck guess=read
 --------------------------------------------------

 Structure from the checkpoint file:  "3_#_opt_freq_b3lyp_6-31G_d_geom_allcheck_guess_read.chk"
 -----------------
 Smiles:Cc1ccccc1O
 -----------------
 Charge =  0 Multiplicity = 1

 SCF Done:  E(RB3LYP) =  -346.782202708     A.U. after   20 cycles
 SCF Done:  E(RB3LYP) =  -346.783460787     A.U. after   11 cycles
 SCF Done:  E(RB3LYP) =  -346.783533859     A.U. after   10 cycles
 SCF Done:  E(RB3LYP) =  -346.783538750     A.U. after    9 cycles
 Optimization completed.
    -- Stationary point found.
 Normal termination of Gaussian 16 at Mon May 27 12:02:06 2024.

 --------------------------------------------------------------------
 #N Geom=AllCheck Guess=TCheck SCRF=Check GenChk RB3LYP/6-31G(d) Freq
 --------------------------------------------------------------------

 Structure from the checkpoint file:  "3_#_opt_freq_b3lyp_6-31G_d_geom_allcheck_guess_read.chk"
 -----------------
 Smiles:Cc1ccccc1O
 -----------------
 Charge =  0 Multiplicity = 1

                         Standard orientation:
 ---------------------------------------------------------------------
 Center     Atomic      Atomic             Coordinates (Angstroms)
 Number     Number       Type             X           Y           Z
 ---------------------------------------------------------------------
      1          6           0       -1.980769   -1.223521    0.000000
      2          6           0       -0.590203   -0.641372   -0.000000
      3          6           0        0.554613   -1.440818   -0.000000
      4          6           0        1.840278   -0.891388    0.000000
      5          6           0        1.993053    0.493259    0.000000
      6          6           0        0.866235    1.317840    0.000000
      7          6           0       -0.411018    0.754249   -0.000000
      8          8           0       -1.549412    1.521012    0.000000
      9          1           0       -2.550611   -0.897375    0.878427
     10          1           0       -2.550612   -0.897372   -0.878425
     11          1           0       -1.945884   -2.317340   -0.000002
     12          1           0        0.432209   -2.521785   -0.000000
     13          1           0        2.710364   -1.541449    0.000000
     14          1           0        2.983737    0.939749    0.000000
     15          1           0        0.977954    2.401361    0.000000
     16          1           0       -1.294995    2.456626   -0.000000
 ---------------------------------------------------------------------

 SCF Done:  E(RB3LYP) =  -346.783538750     A.U. after    1 cycles

 The electronic state is 1-A.
 Alpha  occ. eigenvalues --  -19.17668 -10.24252 -10.18816 -10.18621 -10.18539
 Alpha  occ. eigenvalues --  -10.18282 -10.17781 -10.17535  -1.05560  -0.84487
 Alpha  occ. eigenvalues --   -0.76603  -0.73128  -0.67748  -0.61955  -0.57862
 Alpha  occ. eigenvalues --   -0.53513  -0.48258  -0.46575  -0.42920  -0.42091
 Alpha  occ. eigenvalues --   -0.40804  -0.38809  -0.37958  -0.37793  -0.34664
 Alpha  occ. eigenvalues --   -0.33169  -0.32709  -0.24024  -0.21398
 Alpha virt. eigenvalues --    0.00659   0.01852   0.06840   0.10002   0.12461
 Alpha virt. eigenvalues --    0.14695   0.15687   0.17252   0.17918   0.20484
 Alpha virt. eigenvalues --    0.20785   0.23958   0.25567   0.31761   0.33113

 Mulliken charges:
               1
     1  C   -0.513213
     2  C    0.141868
     3  C   -0.192040
     4  C   -0.129956
     5  C   -0.138578
     6  C   -0.189551
     7  C    0.293423
     8  O   -0.643565
     9  H    0.166183
    10  H    0.166183
    11  H    0.146541
    12  H    0.121526
    13  H    0.123438
    14  H    0.127220
    15  H    0.114026
    16  H    0.406496
 Sum of Mulliken charges =  -0.00000

 Dipole moment (field-independent basis, Debye):
    X=              0.4053    Y=              1.0835    Z=             -0.0000  Tot=              1.1568
 Quadrupole moment (field-independent basis, Debye-Ang):
   XX=            -46.2837   YY=            -38.0297   ZZ=            -49.9704
   XY=              0.0992   XZ=              0.0000   YZ=             -0.0000

  Exact polarizability:  94.490   0.444  87.267  -0.000  -0.000  32.335
 Approx polarizability: 150.102  -4.298 141.834  -0.000  -0.000  47.793

                      1                      2                      3
                      A                      A                      A
 Frequencies --    129.6124               178.5229               267.7964
 Red. masses --      1.0314                 3.4890                 3.2213
 Frc consts  --      0.0102                 0.0655                 0.1361
 IR Inten    --      0.0370                 1.3940                10.1497

                      4                      5                      6
                      A                      A                      A
 Frequencies --    290.1318               370.6332               439.7228
 Red. masses --      3.1342                 1.1547                 3.5655
 Frc consts  --      0.1554                 0.0935                 0.4062
 IR Inten    --      3.9410               108.1736                 3.2047

                      7                      8                      9
                      A                      A                      A
 Frequencies --    452.3925               531.9509               556.5147
 Red. masses --      3.0247                 5.7392                 3.6177
 Frc consts  --      0.3647                 0.9569                 0.6601
 IR Inten    --      0.3909                 5.5601                 0.5315

                     10                     11                     12
                      A                      A                      A
 Frequencies --    592.7478               720.9946               760.4450
 Red. masses --      6.3050                 2.8705                 1.4105
 Frc consts  --      1.3052                 0.8792                 0.4806
 IR Inten    --      0.1362                 3.5952                51.4231

                     13                     14                     15
                      A                      A                      A
 Frequencies --    765.3166               844.7099               852.8344
 Red. masses --      4.4789                 1.3561                 5.1054
 Frc consts  --      1.5456                 0.5701                 2.1878
 IR Inten    --      0.8913                 0.8885                15.6473

                     16                     17                     18
                      A                      A                      A
 Frequencies --    924.1504               964.1358              1016.6269
 Red. masses --      1.3191                 1.2366                 1.5910
 Frc consts  --      0.6637                 0.6773                 0.9688
 IR Inten    --      0.8556                 0.0618                 5.3818

                     19                     20                     21
                      A                      A                      A
 Frequencies --   1075.6053              1076.5864              1132.9959
 Red. masses --      1.4849                 2.1291                 1.8608
 Frc consts  --      1.0121                 1.4540                 1.4074
 IR Inten    --      2.4403                 4.3695                69.1519

                     22                     23                     24
                      A                      A                      A
 Frequencies --   1191.1281              1200.3297              1246.9368
 Red. masses --      1.1080                 1.3922                 2.2197
 Frc consts  --      0.9262                 1.1818                 2.0334
 IR Inten    --      2.1937                35.9476                38.8955

                     25                     26                     27
                      A                      A                      A
 Frequencies --   1303.7553              1346.2764              1381.3753
 Red. masses --      3.1548                 1.7378                 2.8476
 Frc consts  --      3.1595                 1.8558                 3.2015
 IR Inten    --     70.7315                22.1620                44.0001

                     28                     29                     30
                      A                      A                      A
 Frequencies --   1445.3242              1493.2960              1508.4346
 Red. masses --      1.2513                 1.8732                 1.0443
 Frc consts  --      1.5400                 2.4611                 1.4000
 IR Inten    --      0.1041                26.8354                 5.1822

                     31                     32                     33
                      A                      A                      A
 Frequencies --   1530.4060              1557.0320              1655.0227
 Red. masses --      1.2466                 2.5621                 5.5932
 Frc consts  --      1.7202                 3.6597                 9.0265
 IR Inten    --     20.7868                31.0828                16.0070

                     34                     35                     36
                      A                      A                      A
 Frequencies --   1669.2385              3047.1891              3098.7038
 Red. masses --      6.1675                 1.0363                 1.1004
 Frc consts  --     10.1250                 5.6691                 6.2254
 IR Inten    --     19.3535                28.6956                18.1159

                     37                     38                     39
                      A                      A                      A
 Frequencies --   3127.8938              3159.9435              3177.1584
 Red. masses --      1.1025                 1.0885                 1.0876
 Frc consts  --      6.3554                 6.4035                 6.4686
 IR Inten    --     17.5858                20.4667                 7.9905

                     40                     41                     42
                      A                      A                      A
 Frequencies --   3192.2734              3209.2639              3752.9065
 Red. masses --      1.0905                 1.0969                 1.0659
 Frc consts  --      6.5474                 6.6562                 8.8451
 IR Inten    --     22.5518                22.7609                37.3023

 - Thermochemistry -
 -------------------
 Temperature   298.150 Kelvin.  Pressure   1.00000 Atm.
 Atom     1 has atomic number  6 and mass  12.00000

 Molecular mass:   108.05751 amu.
 Principal axes and moments of inertia in atomic units:
                           1         2         3
     Eigenvalues --   552.18145 824.258541365.33154
           X            0.99712   0.07582  -0.00000
           Y           -0.07582   0.99712  -0.00000
           Z           -0.00000   0.00000   1.00000
 This molecule is an asymmetric top.
 Rotational symmetry number  1.
 Warning -- assumption of classical behavior for rotation
           may cause significant error
 Rotational temperatures (Kelvin)      0.15686     0.10508     0.06344
 Rotational constants (GHZ):           3.26838     2.18953     1.32183
 Zero-point vibrational energy     348342.5 (Joules/Mol)
                                   83.25585 (Kcal/Mol)
 Warning -- explicit consideration of  10 degrees of freedom as
           vibrations may cause significant error
 Vibrational temperatures:    186.48   256.85   385.30   417.43   533.26
          (Kelvin)            632.66   650.89   765.36   800.70   852.83
                             1037.35  1094.11  1101.12  1215.35  1227.04
                             1329.65  1387.18  1462.70  1547.56  1548.97
                             1630.13  1713.77  1727.01  1794.06  1875.81
                             1936.99  1987.49  2079.50  2148.52  2170.30
                             2201.91  2240.22  2381.21  2401.66  4384.23
                             4458.34  4500.34  4546.45  4571.22  4592.97
                             4617.41  5399.60

 Zero-point correction=                           0.132677 (Hartree/Particle)
 Thermal correction to Energy=                    0.139826
 Thermal correction to Enthalpy=                  0.140771
 Thermal correction to Gibbs Free Energy=         0.101623
 Sum of electronic and zero-point Energies=           -346.650862
 Sum of electronic and thermal Energies=              -346.643712
 Sum of electronic and thermal Enthalpies=            -346.642768
 Sum of electronic and thermal Free Energies=         -346.681916

                     E (Thermal)             CV                S
                      KCal/Mol        Cal/Mol-Kelvin    Cal/Mol-Kelvin
 Total                   87.742             27.698             82.393
 Electronic               0.000              0.000              0.000
 Translational            0.889              2.981             39.949
 Rotational               0.889              2.981             27.921
 Vibrational             85.965             21.737             14.523
 Vibration     1          0.612              1.924              2.952
 Vibration     2          0.629              1.869              2.344
 Vibration     3          0.673              1.732              1.610
 Vibration     4          0.686              1.692              1.473
 Vibration     5          0.743              1.533              1.077
 Vibration     6          0.800              1.384              0.827
 Vibration     7          0.811              1.356              0.789
 Vibration     8          0.887              1.179              0.583
 Vibration     9          0.912              1.125              0.531
 Vibration    10          0.950              1.047              0.462

 Optimization completed.
    -- Stationary point found.
 Normal termination of Gaussian 16 at Mon May 27 12:02:45 2024.
