 Gaussian 16, Revision A.03,
 Gaussian 16:  EM64M-G16RevA.03 25-Dec-2016

 --------------------------------------------
 # m062x/6-311G(d,p) geom=allcheck guess=read
 --------------------------------------------

 Structure from the checkpoint file:  "3_#_m062x_6-311G_d_p_geom_allcheck_guess_read.chk"
 -----------------
 Smiles:Cc1ccccc1O
 -----------------
 Charge =  0 Multiplicity = 1

                         Standard orientation:
 ---------------------------------------------------------------------
 Center     Atomic      Atomic             Coordinates (Angstroms)
 Number     Number       Type             X           Y           Z
 ---------------------------------------------------------------------
      1          6           0       -1.980769   -1.223521    0.000000
      2          6           0       -0.590203   -0.641372   -0.000000
      3          6           0        0.554613   -1.440818   -0.000000
      4          6           0        1.840278   -0.891388    0.000000
      5          6           0        1.993053    0.493259    0.000000
      6          6           0        0.866235    1.317840    0.000000
      7          6           0       -0.411018    0.754249   -0.000000
      8          8           0       -1.549412    1.521012    0.000000
      9          1           0       -2.550611   -0.897375    0.878427
     10          1           0       -2.550612   -0.897372   -0.878425
     11          1           0       -1.945884   -2.317340   -0.000002
     12          1           0        0.432209   -2.521785   -0.000000
     13          1           0        2.710364   -1.541449    0.000000
     14          1           0        2.983737    0.939749    0.000000
     15          1           0        0.977954    2.401361    0.000000
     16          1           0       -1.294995    2.456626   -0.000000
 ---------------------------------------------------------------------

 SCF Done:  E(RM062X) =  -346.725238361     A.U. after   11 cycles

 The electronic state is 1-A.
 Alpha  occ. eigenvalues --  -19.64814 -10.60261 -10.54630 -10.54317 -10.54215
 Alpha  occ. eigenvalues --  -10.54001 -10.53426 -10.52899  -1.18150  -0.95554
 Alpha  occ. eigenvalues --   -0.86908  -0.83230  -0.77260  -0.70795  -0.66505
 Alpha  occ. eigenvalues --   -0.61578  -0.56240  -0.54339  -0.50264  -0.50099
 Alpha  occ. eigenvalues --   -0.48043  -0.46259  -0.45616  -0.44818  -0.41033
 Alpha  occ. eigenvalues --   -0.40508  -0.39564  -0.30036  -0.27390
 Alpha virt. eigenvalues --    0.02891   0.04224   0.06432   0.08851   0.09959
 Alpha virt. eigenvalues --    0.12602   0.14142   0.15740   0.15998   0.18577
 Alpha virt. eigenvalues --    0.21851   0.24881   0.26699   0.30581   0.31980

 Mulliken charges:
               1
     1  C   -0.331695
     2  C   -0.132192
     3  C   -0.089891
     4  C   -0.136948
     5  C   -0.125344
     6  C   -0.145058
     7  C    0.167201
     8  O   -0.406473
     9  H    0.157326
    10  H    0.157326
    11  H    0.131888
    12  H    0.120804
    13  H    0.122609
    14  H    0.125519
    15  H    0.120338
    16  H    0.264590
 Sum of Mulliken charges =  -0.00000

 Dipole moment (field-independent basis, Debye):
    X=              0.4568    Y=              1.0207    Z=             -0.0000  Tot=              1.1183
 Quadrupole moment (field-independent basis, Debye-Ang):
   XX=            -46.5140   YY=            -38.1106   ZZ=            -51.6140
   XY=              0.3651   XZ=              0.0000   YZ=             -0.0000

 Normal termination of Gaussian 16 at Mon May 27 12:02:59 2024.
