 Gaussian 16, Revision A.03,
 Gaussian 16:  EM64M-G16RevA.03 25-Dec-2016

 ---------
 # opt pm6
 ---------

 -----------------
 Smiles:Cc1ccccc1O
 -----------------
 Symbolic Z-matrix:
 Charge =  0 Multiplicity = 1

 SCF Done:  E(RPM6) = -0.440484447547E-01 A.U. after   17 cycles
 SCF Done:  E(RPM6) = -0.454587732686E-01 A.U. after   14 cycles
 SCF Done:  E(RPM6) = -0.458793243557E-01 A.U. after   14 cycles
 SCF Done:  E(RPM6) = -0.459268005391E-01 A.U. after   13 cycles
 SCF Done:  E(RPM6) = -0.459329177477E-01 A.U. after   13 cycles
 SCF Done:  E(RPM6) = -0.459350934767E-01 A.U. after   13 cycles
 Optimization completed.
    -- Stationary point found.

                         Standard orientation:
 ---------------------------------------------------------------------
 Center     Atomic      Atomic             Coordinates (Angstroms)
 Number     Number       Type             X           Y           Z
 ---------------------------------------------------------------------
      1          6           0       -1.971794   -1.213170   -0.000000
      2          6           0       -0.592319   -0.651090   -0.000000
      3          6           0        0.547717   -1.456723    0.000000
      4          6           0        1.831702   -0.890713    0.000000
      5          6           0        1.992010    0.494575    0.000000
      6          6           0        0.872347    1.335585    0.000000
      7          6           0       -0.398027    0.752736    0.000000
      8          8           0       -1.550821    1.509660    0.000000
      9          1           0       -2.535763   -0.867314    0.880838
     10          1           0       -2.535765   -0.867309   -0.880835
     11          1           0       -1.987885   -2.308665   -0.000003
     12          1           0        0.440297   -2.541167    0.000000
     13          1           0        2.703945   -1.540331   -0.000000
     14          1           0        2.990140    0.930187    0.000000
     15          1           0        0.992986    2.413338    0.000000
     16          1           0       -1.351195    2.476777   -0.000001
 ---------------------------------------------------------------------

 The electronic state is 1-A.
 Alpha  occ. eigenvalues --   -1.13224  -1.09340  -1.00060  -0.94025  -0.88444
 Alpha  occ. eigenvalues --   -0.80916  -0.75201  -0.67963  -0.61168  -0.59130
 Alpha  occ. eigenvalues --   -0.54806  -0.54787  -0.52112  -0.50796  -0.49416
 Alpha  occ. eigenvalues --   -0.48644  -0.44923  -0.44635  -0.43911  -0.35504
 Alpha  occ. eigenvalues --   -0.32555
 Alpha virt. eigenvalues --    0.00866   0.01544   0.08707   0.09532   0.14428
 Alpha virt. eigenvalues --    0.15048   0.16805   0.18008   0.18178   0.18450
 Alpha virt. eigenvalues --    0.19846   0.20728   0.21374   0.21391   0.21652

 Mulliken charges:
               1
     1  C   -0.456516
     2  C   -0.025702
     3  C   -0.118098
     4  C   -0.216225
     5  C   -0.057971
     6  C   -0.335362
     7  C    0.267567
     8  O   -0.474267
     9  H    0.169473
    10  H    0.169473
    11  H    0.154426
    12  H    0.149224
    13  H    0.152012
    14  H    0.140097
    15  H    0.162256
    16  H    0.319613
 Sum of Mulliken charges =  -0.00000

 Dipole moment (field-independent basis, Debye):
    X=              0.4098    Y=              0.5880    Z=             -0.0000  Tot=              0.7167
 N-N= 2.062891385256D+02 E-N=-3.108445880774D+02  KE=-7.459432807201D+01
 1\1\GINC-MACMINIM12022MAC-MINI-2\FOpt\RPM6\ZDO\C7H8O1\MACMINI_M1_2022\
 27-May-2024\0\\# opt pm6\\Smiles:Cc1ccccc1O\\0,1\C,2.1586199368,0.4669
 366449,-0.0502803758\C,0.6764599143,0.3186912509,-0.0397999524\C,-0.18
 86323525,1.4029561835,-0.1969972664\C,-1.5803294062,1.2242723899,-0.18
 16484859\C,-2.1264886075,-0.0470666747,-0.0080665254\C,-1.2909561447,-
 1.1592458625,0.1528212143\C,0.0924585815,-0.960755849,0.1346526618\O,0
 .9835844373,-2.0023109621,0.2860716113\H,2.5954982407,0.1023012779,0.8
 929760212\H,2.6075039525,-0.1410782926,-0.8517635422\H,2.4843812048,1.
 5032729807,-0.1926008894\H,0.221582964,2.4032522665,-0.3337065814\H,-2

 Normal termination of Gaussian 16 at Mon May 27 12:01:37 2024.
