 Gaussian 16, Revision A.03,
 Gaussian 16:  EM64M-G16RevA.03 25-Dec-2016

 ---------------------------------------
 # mp2/6-31G(d) geom=allcheck guess=read
 ---------------------------------------

 Structure from the checkpoint file:  "3_#_mp2_6-31G_d_geom_allcheck_guess_read.chk"
 -----------------
 Smiles:Cc1ccccc1O
 -----------------
 Charge =  0 Multiplicity = 1

                         Standard orientation:
 ---------------------------------------------------------------------
 Center     Atomic      Atomic             Coordinates (Angstroms)
 Number     Number       Type             X           Y           Z
 ---------------------------------------------------------------------
      1          6           0       -1.980769   -1.223521    0.000000
      2          6           0       -0.590203   -0.641372   -0.000000
      3          6           0        0.554613   -1.440818   -0.000000
      4          6           0        1.840278   -0.891388    0.000000
      5          6           0        1.993053    0.493259    0.000000
      6          6           0        0.866235    1.317840    0.000000
      7          6           0       -0.411018    0.754249   -0.000000
      8          8           0       -1.549412    1.521012    0.000000
      9          1           0       -2.550611   -0.897375    0.878427
     10          1           0       -2.550612   -0.897372   -0.878425
     11          1           0       -1.945884   -2.317340   -0.000002
     12          1           0        0.432209   -2.521785   -0.000000
     13          1           0        2.710364   -1.541449    0.000000
     14          1           0        2.983737    0.939749    0.000000
     15          1           0        0.977954    2.401361    0.000000
     16          1           0       -1.294995    2.456626   -0.000000
 ---------------------------------------------------------------------

 SCF Done:  E(RHF) =  -344.593263845     A.U. after   13 cycles
 E2 =    -0.1069913142D+01 EUMP2 =    -0.34566317698722D+03

 The electronic state is 1-A.
 Alpha  occ. eigenvalues --  -20.59295 -11.29752 -11.23738 -11.23477 -11.23344
 Alpha  occ. eigenvalues --  -11.23253 -11.22527 -11.21742  -1.39702  -1.14207
 Alpha  occ. eigenvalues --   -1.04055  -0.99865  -0.92505  -0.83794  -0.79502
 Alpha  occ. eigenvalues --   -0.72181  -0.66798  -0.64607  -0.59842  -0.59277
 Alpha  occ. eigenvalues --   -0.57645  -0.55640  -0.54488  -0.53703  -0.49754
 Alpha  occ. eigenvalues --   -0.48138  -0.47000  -0.32868  -0.30300
 Alpha virt. eigenvalues --    0.14549   0.16027   0.21771   0.24470   0.26661
 Alpha virt. eigenvalues --    0.29422   0.32184   0.32656   0.32713   0.35800
 Alpha virt. eigenvalues --    0.39580   0.41727   0.43974   0.48696   0.51186

 Mulliken charges:
               1
     1  C   -0.488077
     2  C   -0.013529
     3  C   -0.212841
     4  C   -0.217300
     5  C   -0.191541
     6  C   -0.278032
     7  C    0.389641
     8  O   -0.766179
     9  H    0.183453
    10  H    0.183453
    11  H    0.163986
    12  H    0.199394
    13  H    0.198675
    14  H    0.202958
    15  H    0.189986
    16  H    0.455953
 Sum of Mulliken charges =  -0.00000

 Dipole moment (field-independent basis, Debye):
    X=              0.8056    Y=              0.9532    Z=             -0.0000  Tot=              1.2480
 Quadrupole moment (field-independent basis, Debye-Ang):
   XX=            -46.9628   YY=            -37.9670   ZZ=            -51.4190
   XY=              0.5569   XZ=              0.0000   YZ=             -0.0000

 Normal termination of Gaussian 16 at Mon May 27 12:03:02 2024.
