 Gaussian 16, Revision A.03,
 Gaussian 16:  EM64M-G16RevA.03 25-Dec-2016

 --------------------------------------------------
 # opt freq b3lyp/6-31G(d) geom=allcheck guess=read
 --------------------------------------------------

 Structure from the checkpoint file:  "1_#_opt_freq_b3lyp_6-31G_d_geom_allcheck_guess_read.chk"
 ------------
 Smiles:[2H]C
 ------------
 Charge =  0 Multiplicity = 1

 SCF Done:  E(RB3LYP) =  -40.5181842706     A.U. after   11 cycles
 SCF Done:  E(RB3LYP) =  -40.5183831521     A.U. after    6 cycles
 Optimization completed.
    -- Stationary point found.
 Normal termination of Gaussian 16 at Fri Jul 19 15:54:19 2024.

 --------------------------------------------------------------------
 #N Geom=AllCheck Guess=TCheck SCRF=Check GenChk RB3LYP/6-31G(d) Freq
 --------------------------------------------------------------------

 Structure from the checkpoint file:  "1_#_opt_freq_b3lyp_6-31G_d_geom_allcheck_guess_read.chk"
 ------------
 Smiles:[2H]C
 ------------
 Charge =  0 Multiplicity = 1

                         Standard orientation:
 ---------------------------------------------------------------------
 Center     Atomic      Atomic             Coordinates (Angstroms)
 Number     Number       Type             X           Y           Z
 ---------------------------------------------------------------------
      1          1           0        0.540156    0.858197   -0.409219
      2          6           0       -0.000000    0.000000   -0.000000
      3          1           0       -1.075178    0.149371   -0.131952
      4          1           0        0.308786   -0.908690   -0.524084
      5          1           0        0.226237   -0.098878    1.065256
 ---------------------------------------------------------------------

 SCF Done:  E(RB3LYP) =  -40.5183831521     A.U. after    1 cycles

 The electronic state is 1-A.
 Alpha  occ. eigenvalues --  -10.16704  -0.69023  -0.38903  -0.38903  -0.38903
 Alpha virt. eigenvalues --    0.11786   0.17647   0.17647   0.17647   0.53332
 Alpha virt. eigenvalues --    0.53332   0.53332   0.89755   0.89755   0.89755
 Alpha virt. eigenvalues --    0.94713   1.09978   1.65656   1.65656   2.24331

 Mulliken charges:
               1
     1  H    0.157023
     2  C   -0.628090
     3  H    0.157023
     4  H    0.157023
     5  H    0.157022
 Sum of Mulliken charges =   0.00000

 Dipole moment (field-independent basis, Debye):
    X=              0.0000    Y=             -0.0000    Z=              0.0000  Tot=              0.0000
 Quadrupole moment (field-independent basis, Debye-Ang):
   XX=             -8.2520   YY=             -8.2520   ZZ=             -8.2520
   XY=             -0.0000   XZ=             -0.0000   YZ=              0.0000

  Exact polarizability:  12.356  -0.000  12.356   0.000  -0.000  12.356
 Approx polarizability:  14.605   0.000  14.605   0.000  -0.000  14.605

                      1                      2                      3
                      A                      A                      A
 Frequencies --   1373.5376              1373.5435              1373.5558
 Red. masses --      1.1787                 1.1787                 1.1787
 Frc consts  --      1.3102                 1.3103                 1.3103
 IR Inten    --     15.3822                15.3824                15.3824

                      4                      5                      6
                      A                      A                      A
 Frequencies --   1593.2878              1593.2927              3051.5176
 Red. masses --      1.0078                 1.0078                 1.0078
 Frc consts  --      1.5074                 1.5074                 5.5293
 IR Inten    --      0.0000                 0.0000                 0.0000

                      7                      8                      9
                      A                      A                      A
 Frequencies --   3161.1303              3161.1601              3161.1842
 Red. masses --      1.1019                 1.1019                 1.1019
 Frc consts  --      6.4873                 6.4874                 6.4875
 IR Inten    --     26.4428                26.4426                26.4432

 - Thermochemistry -
 -------------------
 Temperature   298.150 Kelvin.  Pressure   1.00000 Atm.
 Atom     1 has atomic number  1 and mass   1.00783

 Molecular mass:    16.03130 amu.
 Principal axes and moments of inertia in atomic units:
                           1         2         3
     Eigenvalues --    11.47585  11.47585  11.47586
           X            1.00000   0.00000  -0.00000
           Y           -0.00000   1.00000   0.00000
           Z            0.00000  -0.00000   1.00000
 This molecule is an asymmetric top.
 Rotational symmetry number  1.
 Rotational temperatures (Kelvin)      7.54749     7.54749     7.54749
 Rotational constants (GHZ):         157.26424   157.26421   157.26408
 Zero-point vibrational energy     118682.8 (Joules/Mol)
                                   28.36586 (Kcal/Mol)
 Vibrational temperatures:   1976.21  1976.22  1976.24  2292.39  2292.39
          (Kelvin)           4390.45  4548.16  4548.20  4548.24

 Zero-point correction=                           0.045204 (Hartree/Particle)
 Thermal correction to Energy=                    0.048068
 Thermal correction to Enthalpy=                  0.049012
 Thermal correction to Gibbs Free Energy=         0.025534
 Sum of electronic and zero-point Energies=            -40.473179
 Sum of electronic and thermal Energies=               -40.470315
 Sum of electronic and thermal Enthalpies=             -40.469371
 Sum of electronic and thermal Free Energies=          -40.492849

                     E (Thermal)             CV                S
                      KCal/Mol        Cal/Mol-Kelvin    Cal/Mol-Kelvin
 Total                   30.163              6.417             49.414
 Electronic               0.000              0.000              0.000
 Translational            0.889              2.981             34.261
 Rotational               0.889              2.981             15.077
 Vibrational             28.386              0.455              0.076

 Optimization completed.
    -- Stationary point found.
 Normal termination of Gaussian 16 at Fri Jul 19 15:54:21 2024.
