 Gaussian 16, Revision A.03,
 Gaussian 16:  EM64M-G16RevA.03 25-Dec-2016

 ---------
 # opt pm6
 ---------

 ------------
 Smiles:[2H]C
 ------------
 Symbolic Z-matrix:
 Charge =  0 Multiplicity = 1

 SCF Done:  E(RPM6) = -0.194565184604E-01 A.U. after    7 cycles
 SCF Done:  E(RPM6) = -0.195831205694E-01 A.U. after    7 cycles
 SCF Done:  E(RPM6) = -0.195852394352E-01 A.U. after    5 cycles
 Optimization completed.
    -- Stationary point found.

                         Standard orientation:
 ---------------------------------------------------------------------
 Center     Atomic      Atomic             Coordinates (Angstroms)
 Number     Number       Type             X           Y           Z
 ---------------------------------------------------------------------
      1          1           0        0.600982    0.842872   -0.323251
      2          6           0        0.000000    0.000000    0.000000
      3          1           0       -1.051353    0.252995   -0.082187
      4          1           0        0.215197   -0.858769   -0.626347
      5          1           0        0.235174   -0.237099    1.031786
 ---------------------------------------------------------------------

 The electronic state is 1-A.
 Alpha  occ. eigenvalues --   -0.92646  -0.50259  -0.50259  -0.50259
 Alpha virt. eigenvalues --    0.22111   0.22111   0.22111   0.26662

 Mulliken charges:
               1
     1  H    0.163779
     2  C   -0.655114
     3  H    0.163779
     4  H    0.163779
     5  H    0.163779
 Sum of Mulliken charges =  -0.00000

 Dipole moment (field-independent basis, Debye):
    X=              0.0000    Y=              0.0000    Z=             -0.0000  Tot=              0.0000
 N-N= 1.446632829196D+01 E-N=-1.374860434414D+01  KE=-1.035476168956D+01
 1\1\GINC-MACMINIM12022MAC-MINI-2\FOpt\RPM6\ZDO\C1H4\MACMINI_M1_2022\19
 -Jul-2024\0\\# opt pm6\\Smiles:[2H]C\\0,1\H,-0.7424003294,-0.109689389
 7,-0.7828885622\C,-0.000000002,-0.0000000007,0.0000000026\H,-0.3449053
 698,-0.5007683384,0.8979843365\H,0.9353826992,-0.4427715808,-0.3242175
 774\H,0.1519229946,1.0532293161,0.2091217824\\Version=EM64M-G16RevA.03
 \State=1-A\HF=-0.0195852\RMSD=1.561e-09\RMSF=3.290e-09\Dipole=0.,0.,0.
 \PG=C01 [X(C1H4)]\\@

 Normal termination of Gaussian 16 at Fri Jul 19 15:54:16 2024.
