 Gaussian 16, Revision A.03,
 Gaussian 16:  EM64M-G16RevA.03 25-Dec-2016

 --------------------------------------------------
 # opt freq b3lyp/6-31G(d) geom=allcheck guess=read
 --------------------------------------------------

 Structure from the checkpoint file:  "2_#_opt_freq_b3lyp_6-31G_d_geom_allcheck_guess_read.chk"
 -------------
 Smiles:[2H]OC
 -------------
 Charge =  0 Multiplicity = 1

 SCF Done:  E(RB3LYP) =  -115.713226358     A.U. after   13 cycles
 SCF Done:  E(RB3LYP) =  -115.714333872     A.U. after    9 cycles
 SCF Done:  E(RB3LYP) =  -115.714398431     A.U. after    8 cycles
 SCF Done:  E(RB3LYP) =  -115.714405890     A.U. after    8 cycles
 Optimization completed.
    -- Stationary point found.
 Normal termination of Gaussian 16 at Fri Jul 19 15:54:31 2024.

 --------------------------------------------------------------------
 #N Geom=AllCheck Guess=TCheck SCRF=Check GenChk RB3LYP/6-31G(d) Freq
 --------------------------------------------------------------------

 Structure from the checkpoint file:  "2_#_opt_freq_b3lyp_6-31G_d_geom_allcheck_guess_read.chk"
 -------------
 Smiles:[2H]OC
 -------------
 Charge =  0 Multiplicity = 1

                         Standard orientation:
 ---------------------------------------------------------------------
 Center     Atomic      Atomic             Coordinates (Angstroms)
 Number     Number       Type             X           Y           Z
 ---------------------------------------------------------------------
      1          1           0        1.133541   -0.766668    0.000000
      2          8           0        0.749197    0.122459    0.000000
      3          6           0       -0.662242   -0.019500    0.000000
      4          1           0       -1.037110   -0.543553    0.893262
      5          1           0       -1.037110   -0.543555   -0.893261
      6          1           0       -1.079449    0.991108   -0.000001
 ---------------------------------------------------------------------

 SCF Done:  E(RB3LYP) =  -115.714405890     A.U. after    1 cycles

 The electronic state is 1-A.
 Alpha  occ. eigenvalues --  -19.14016 -10.22471  -1.01056  -0.67824  -0.50234
 Alpha  occ. eigenvalues --   -0.43400  -0.41917  -0.33031  -0.26456
 Alpha virt. eigenvalues --    0.07526   0.13073   0.16669   0.17514   0.20593
 Alpha virt. eigenvalues --    0.53424   0.56727   0.57748   0.78635   0.84869
 Alpha virt. eigenvalues --    0.86913   0.90166   0.95380   0.97727   1.02228

 Mulliken charges:
               1
     1  H    0.390467
     2  O   -0.605116
     3  C   -0.205149
     4  H    0.129205
     5  H    0.129205
     6  H    0.161389
 Sum of Mulliken charges =  -0.00000

 Dipole moment (field-independent basis, Debye):
    X=             -0.7477    Y=             -1.5202    Z=             -0.0000  Tot=              1.6941
 Quadrupole moment (field-independent basis, Debye-Ang):
   XX=            -12.5943   YY=            -11.9889   ZZ=            -13.5826
   XY=             -2.2237   XZ=              0.0000   YZ=             -0.0000

  Exact polarizability:  17.149  -0.983  15.961  -0.000   0.000  14.003
 Approx polarizability:  20.949  -0.734  20.352  -0.000   0.000  16.921

                      1                      2                      3
                      A                      A                      A
 Frequencies --    346.3383              1067.3873              1096.8007
 Red. masses --      1.0692                 2.1689                 1.6771
 Frc consts  --      0.0756                 1.4559                 1.1887
 IR Inten    --    127.8333               120.0472                 1.5511

                      4                      5                      6
                      A                      A                      A
 Frequencies --   1183.4114              1400.2686              1511.4677
 Red. masses --      1.2674                 1.2814                 1.1405
 Frc consts  --      1.0458                 1.4803                 1.5352
 IR Inten    --      0.6254                28.0328                 7.3949

                      7                      8                      9
                      A                      A                      A
 Frequencies --   1524.9583              1541.6738              2995.7733
 Red. masses --      1.0505                 1.0505                 1.0378
 Frc consts  --      1.4393                 1.4710                 5.4875
 IR Inten    --      1.5649                 4.1378                64.8254

                     10                     11                     12
                      A                      A                      A
 Frequencies --   3038.0179              3132.3696              3755.1435
 Red. masses --      1.1058                 1.0959                 1.0664
 Frc consts  --      6.0133                 6.3354                 8.8597
 IR Inten    --     85.9483                34.6609                11.2109

 - Thermochemistry -
 -------------------
 Temperature   298.150 Kelvin.  Pressure   1.00000 Atm.
 Atom     1 has atomic number  1 and mass   1.00783

 Molecular mass:    32.02621 amu.
 Principal axes and moments of inertia in atomic units:
                           1         2         3
     Eigenvalues --    14.18911  72.83463  75.53692
           X            0.99895  -0.04579   0.00000
           Y            0.04579   0.99895   0.00000
           Z           -0.00000  -0.00000   1.00000
 This molecule is an asymmetric top.
 Rotational symmetry number  1.
 Rotational temperatures (Kelvin)      6.10425     1.18919     1.14664
 Rotational constants (GHZ):         127.19198    24.77861    23.89217
 Zero-point vibrational energy     135139.8 (Joules/Mol)
                                   32.29919 (Kcal/Mol)
 Warning -- explicit consideration of   1 degrees of freedom as
           vibrations may cause significant error
 Vibrational temperatures:    498.30  1535.73  1578.05  1702.67  2014.67
          (Kelvin)           2174.66  2194.07  2218.12  4310.25  4371.03
                             4506.78  5402.81

 Zero-point correction=                           0.051472 (Hartree/Particle)
 Thermal correction to Energy=                    0.054762
 Thermal correction to Enthalpy=                  0.055706
 Thermal correction to Gibbs Free Energy=         0.028751
 Sum of electronic and zero-point Energies=           -115.662934
 Sum of electronic and thermal Energies=              -115.659644
 Sum of electronic and thermal Enthalpies=            -115.658700
 Sum of electronic and thermal Free Energies=         -115.685654

                     E (Thermal)             CV                S
                      KCal/Mol        Cal/Mol-Kelvin    Cal/Mol-Kelvin
 Total                   34.364              8.664             56.731
 Electronic               0.000              0.000              0.000
 Translational            0.889              2.981             36.324
 Rotational               0.889              2.981             18.996
 Vibrational             32.586              2.702              1.411
 Vibration     1          0.724              1.583              1.183

 Optimization completed.
    -- Stationary point found.
 Normal termination of Gaussian 16 at Fri Jul 19 15:54:34 2024.
