 Gaussian 16, Revision A.03,
 Gaussian 16:  EM64M-G16RevA.03 25-Dec-2016

 ---------
 # opt pm6
 ---------

 -------------
 Smiles:[2H]OC
 -------------
 Symbolic Z-matrix:
 Charge =  0 Multiplicity = 1

 SCF Done:  E(RPM6) = -0.756454125754E-01 A.U. after   13 cycles
 SCF Done:  E(RPM6) = -0.768036398557E-01 A.U. after    9 cycles
 SCF Done:  E(RPM6) = -0.769221931437E-01 A.U. after    8 cycles
 SCF Done:  E(RPM6) = -0.769315919326E-01 A.U. after    8 cycles
 SCF Done:  E(RPM6) = -0.769321349000E-01 A.U. after    7 cycles
 Optimization completed.
    -- Stationary point found.

                         Standard orientation:
 ---------------------------------------------------------------------
 Center     Atomic      Atomic             Coordinates (Angstroms)
 Number     Number       Type             X           Y           Z
 ---------------------------------------------------------------------
      1          1           0        1.172043   -0.756006   -0.000000
      2          8           0        0.746417    0.123643    0.000000
      3          6           0       -0.679616   -0.024825    0.000000
      4          1           0       -1.009209   -0.547107    0.903520
      5          1           0       -1.009209   -0.547113   -0.903517
      6          1           0       -1.047270    1.010027   -0.000003
 ---------------------------------------------------------------------

 The electronic state is 1-A.
 Alpha  occ. eigenvalues --   -1.09441  -0.90601  -0.65964  -0.56632  -0.55049
 Alpha  occ. eigenvalues --   -0.45801  -0.38698
 Alpha virt. eigenvalues --    0.09697   0.18654   0.19459   0.20637   0.21846

 Mulliken charges:
               1
     1  H    0.301244
     2  O   -0.527900
     3  C   -0.176676
     4  H    0.123379
     5  H    0.123379
     6  H    0.156574
 Sum of Mulliken charges =  -0.00000

 Dipole moment (field-independent basis, Debye):
    X=             -1.3122    Y=             -1.5725    Z=             -0.0000  Tot=              2.0481
 N-N= 3.772589542626D+01 E-N=-3.782346851707D+01  KE=-2.853846127848D+01
 1\1\GINC-MACMINIM12022MAC-MINI-2\FOpt\RPM6\ZDO\C1H4O1\MACMINI_M1_2022\
 19-Jul-2024\0\\# opt pm6\\Smiles:[2H]OC\\0,1\H,1.5905094271,-0.2078529
 917,-0.0846211774\O,0.8464752865,-0.441041156,0.5044258188\C,-0.378738
 3062,0.0788475105,-0.0286604658\H,-0.5868566944,-0.3627736254,-1.00815
 88126\H,-0.3373452197,1.1709911753,-0.0858287884\H,-1.134045491,-0.238
 1698986,0.7028434339\\Version=EM64M-G16RevA.03\State=1-A\HF=-0.0769321
 \RMSD=8.216e-09\RMSF=4.484e-05\Dipole=-0.2122389,0.4256528,-0.6504088\
 PG=C01 [X(C1H4O1)]\\@

 Normal termination of Gaussian 16 at Fri Jul 19 15:54:25 2024.
