 Gaussian 16, Revision A.03,
 Gaussian 16:  EM64M-G16RevA.03 25-Dec-2016

 --------------------------------------------------
 # opt freq b3lyp/6-31G(d) geom=allcheck guess=read
 --------------------------------------------------

 Structure from the checkpoint file:  "3_#_opt_freq_b3lyp_6-31G_d_geom_allcheck_guess_read.chk"
 -------------
 Smiles:[2H]CC
 -------------
 Charge =  0 Multiplicity = 1

 SCF Done:  E(RB3LYP) =  -79.8303757909     A.U. after   12 cycles
 SCF Done:  E(RB3LYP) =  -79.8304179464     A.U. after    6 cycles
 SCF Done:  E(RB3LYP) =  -79.8304205811     A.U. after    6 cycles
 Optimization completed.
    -- Stationary point found.
 Normal termination of Gaussian 16 at Fri Jul 19 15:54:42 2024.

 --------------------------------------------------------------------
 #N Geom=AllCheck Guess=TCheck SCRF=Check GenChk RB3LYP/6-31G(d) Freq
 --------------------------------------------------------------------

 Structure from the checkpoint file:  "3_#_opt_freq_b3lyp_6-31G_d_geom_allcheck_guess_read.chk"
 -------------
 Smiles:[2H]CC
 -------------
 Charge =  0 Multiplicity = 1

                         Standard orientation:
 ---------------------------------------------------------------------
 Center     Atomic      Atomic             Coordinates (Angstroms)
 Number     Number       Type             X           Y           Z
 ---------------------------------------------------------------------
      1          1           0        1.164689    0.523389   -0.876457
      2          6           0        0.765150   -0.000000    0.000000
      3          6           0       -0.765150    0.000000   -0.000000
      4          1           0        1.164689    0.497342    0.891495
      5          1           0        1.164692   -1.020728   -0.015038
      6          1           0       -1.164692    1.020728    0.015040
      7          1           0       -1.164689   -0.497341   -0.891496
      8          1           0       -1.164689   -0.523390    0.876456
 ---------------------------------------------------------------------

 SCF Done:  E(RB3LYP) =  -79.8304205811     A.U. after    1 cycles

 The electronic state is 1-A.
 Alpha  occ. eigenvalues --  -10.17239 -10.17218  -0.74743  -0.61199  -0.43004
 Alpha  occ. eigenvalues --   -0.43004  -0.36299  -0.34002  -0.34002
 Alpha virt. eigenvalues --    0.10480   0.15598   0.16361   0.16361   0.19025
 Alpha virt. eigenvalues --    0.19025   0.24267   0.51310   0.54371   0.54371
 Alpha virt. eigenvalues --    0.63693   0.63693   0.66863   0.88290   0.88290

 Mulliken charges:
               1
     1  H    0.144270
     2  C   -0.432810
     3  C   -0.432810
     4  H    0.144270
     5  H    0.144270
     6  H    0.144270
     7  H    0.144270
     8  H    0.144270
 Sum of Mulliken charges =  -0.00000

 Dipole moment (field-independent basis, Debye):
    X=             -0.0000    Y=              0.0000    Z=             -0.0000  Tot=              0.0000
 Quadrupole moment (field-independent basis, Debye-Ang):
   XX=            -15.2271   YY=            -14.7158   ZZ=            -14.7158
   XY=             -0.0000   XZ=              0.0000   YZ=              0.0000

  Exact polarizability:  23.941   0.000  22.414  -0.000  -0.000  22.415
 Approx polarizability:  27.516  -0.000  28.748  -0.000  -0.000  28.748

                      1                      2                      3
                      A                      A                      A
 Frequencies --    314.0747               832.8924               832.9140
 Red. masses --      1.0078                 1.0577                 1.0577
 Frc consts  --      0.0586                 0.4323                 0.4323
 IR Inten    --      0.0000                 4.6904                 4.6910

                      4                      5                      6
                      A                      A                      A
 Frequencies --   1010.4892              1235.7978              1235.8267
 Red. masses --      3.2430                 1.4653                 1.4653
 Frc consts  --      1.9510                 1.3185                 1.3185
 IR Inten    --      0.0000                 0.0000                 0.0000

                      7                      8                      9
                      A                      A                      A
 Frequencies --   1433.7940              1455.1474              1532.2305
 Red. masses --      1.1979                 1.2580                 1.0198
 Frc consts  --      1.4509                 1.5694                 1.4106
 IR Inten    --      0.2571                 0.0000                 0.0000

                     10                     11                     12
                      A                      A                      A
 Frequencies --   1532.2583              1537.8810              1537.9115
 Red. masses --      1.0198                 1.0619                 1.0619
 Frc consts  --      1.4106                 1.4798                 1.4798
 IR Inten    --      0.0000                 7.4785                 7.4780

                     13                     14                     15
                      A                      A                      A
 Frequencies --   3046.7812              3047.6723              3097.9038
 Red. masses --      1.0368                 1.0344                 1.1020
 Frc consts  --      5.6704                 5.6606                 6.2312
 IR Inten    --      0.0000                59.1194                 0.0000

                     16                     17                     18
                      A                      A                      A
 Frequencies --   3097.9430              3122.2694              3122.3077
 Red. masses --      1.1020                 1.1030                 1.1030
 Frc consts  --      6.2313                 6.3353                 6.3355
 IR Inten    --      0.0000                73.9020                73.9046

 - Thermochemistry -
 -------------------
 Temperature   298.150 Kelvin.  Pressure   1.00000 Atm.
 Atom     1 has atomic number  1 and mass   1.00783

 Molecular mass:    30.04695 amu.
 Principal axes and moments of inertia in atomic units:
                           1         2         3
     Eigenvalues --    22.50342  90.72079  90.72082
           X            1.00000   0.00000  -0.00000
           Y           -0.00000   1.00000   0.00000
           Z            0.00000  -0.00000   1.00000
 This molecule is an asymmetric top.
 Rotational symmetry number  1.
 Rotational temperatures (Kelvin)      3.84892     0.95473     0.95473
 Rotational constants (GHZ):          80.19852    19.89336    19.89335
 Zero-point vibrational energy     197539.9 (Joules/Mol)
                                   47.21317 (Kcal/Mol)
 Warning -- explicit consideration of   1 degrees of freedom as
           vibrations may cause significant error
 Vibrational temperatures:    451.88  1198.35  1198.38  1453.87  1778.04
          (Kelvin)           1778.08  2062.91  2093.63  2204.54  2204.58
                             2212.67  2212.71  4383.64  4384.92  4457.19
                             4457.25  4492.25  4492.30

 Zero-point correction=                           0.075239 (Hartree/Particle)
 Thermal correction to Energy=                    0.078707
 Thermal correction to Enthalpy=                  0.079651
 Thermal correction to Gibbs Free Energy=         0.052129
 Sum of electronic and zero-point Energies=            -79.755182
 Sum of electronic and thermal Energies=               -79.751714
 Sum of electronic and thermal Enthalpies=             -79.750769
 Sum of electronic and thermal Free Energies=          -79.778291

                     E (Thermal)             CV                S
                      KCal/Mol        Cal/Mol-Kelvin    Cal/Mol-Kelvin
 Total                   49.389              9.983             57.925
 Electronic               0.000              0.000              0.000
 Translational            0.889              2.981             36.134
 Rotational               0.889              2.981             19.855
 Vibrational             47.612              4.022              1.936
 Vibration     1          0.702              1.647              1.341

 Optimization completed.
    -- Stationary point found.
 Normal termination of Gaussian 16 at Fri Jul 19 15:54:46 2024.
