 Gaussian 16, Revision A.03,
 Gaussian 16:  EM64M-G16RevA.03 25-Dec-2016

 ---------
 # opt pm6
 ---------

 -------------
 Smiles:[2H]CC
 -------------
 Symbolic Z-matrix:
 Charge =  0 Multiplicity = 1

 SCF Done:  E(RPM6) = -0.248352310408E-01 A.U. after    9 cycles
 SCF Done:  E(RPM6) = -0.250971121063E-01 A.U. after    8 cycles
 SCF Done:  E(RPM6) = -0.251756957101E-01 A.U. after    8 cycles
 SCF Done:  E(RPM6) = -0.251798607222E-01 A.U. after    7 cycles
 Optimization completed.
    -- Stationary point found.

                         Standard orientation:
 ---------------------------------------------------------------------
 Center     Atomic      Atomic             Coordinates (Angstroms)
 Number     Number       Type             X           Y           Z
 ---------------------------------------------------------------------
      1          1           0        1.160715    1.016590    0.089632
      2          6           0        0.760510    0.000000    0.000000
      3          6           0       -0.760510   -0.000000   -0.000000
      4          1           0        1.160715   -0.585918    0.835577
      5          1           0        1.160715   -0.430672   -0.925208
      6          1           0       -1.160715    0.430667    0.925210
      7          1           0       -1.160715    0.585922   -0.835574
      8          1           0       -1.160715   -1.016589   -0.089637
 ---------------------------------------------------------------------

 The electronic state is 1-A.
 Alpha  occ. eigenvalues --   -0.99410  -0.79740  -0.54997  -0.54997  -0.48048
 Alpha  occ. eigenvalues --   -0.43818  -0.43818
 Alpha virt. eigenvalues --    0.16797   0.21043   0.21043   0.22934   0.22934
 Alpha virt. eigenvalues --    0.25427   0.25464

 Mulliken charges:
               1
     1  H    0.140988
     2  C   -0.422964
     3  C   -0.422964
     4  H    0.140988
     5  H    0.140988
     6  H    0.140988
     7  H    0.140988
     8  H    0.140988
 Sum of Mulliken charges =  -0.00000

 Dipole moment (field-independent basis, Debye):
    X=              0.0000    Y=              0.0000    Z=              0.0000  Tot=              0.0000
 N-N= 3.474903130904D+01 E-N=-4.211584046087D+01  KE=-1.893602671265D+01
 1\1\GINC-MACMINIM12022MAC-MINI-2\FOpt\RPM6\ZDO\C2H6\MACMINI_M1_2022\19
 -Jul-2024\0\\# opt pm6\\Smiles:[2H]CC\\0,1\H,-1.3152642895,0.268515763
 9,0.7659810862\C,-0.749592508,-0.0249475678,-0.1259533779\C,0.74959226
 39,0.0249472559,0.1259536224\H,-1.0416938825,0.6511112192,-0.937910132
 \H,-1.0751985956,-1.0338540759,-0.4047736858\H,1.0751991613,1.03385493
 56,0.4047689633\H,1.0416929173,-0.6511076553,0.937913844\H,1.315263933
 2,-0.2685208668,-0.765979322\\Version=EM64M-G16RevA.03\State=1-A\HF=-0
 .0251799\RMSD=6.492e-09\RMSF=1.177e-04\Dipole=0.,0.,0.\PG=C01 [X(C2H6)
 ]\\@

 Normal termination of Gaussian 16 at Fri Jul 19 15:54:37 2024.
